<?xml version="1.0"?>
<VTKFile type="UnstructuredGrid"  version="0.1"  >
<UnstructuredGrid>
<Piece  NumberOfPoints="10984" NumberOfCells="62114">
<Points>
<DataArray  type="Float64"  NumberOfComponents="3"  format="ascii">0.400658023397264 2.820700869932021 -1.303184927397832  0.6808576204713309 2.597531199368547 -1.442758787973454  0.5976278522068063 2.529706889800945 -1.228986110686014  0.4269353864592832 2.605319576205623 -1.433949133013174  1.609427330261262 0.3367427988156942 0.4170358279486673  1.44693281398053 0.5628681124257806 0.3228786087221799  1.580048331914825 0.5397185306536847 0.684846451937468  1.706275180832744 0.7083092442527381 0.376382869319004  0.9853206107947066 -2.657876694636763 1.606769083234423  0.7446593666027364 -2.691149507706139 1.493102145126439  0.8819022788005507 -2.79981839065726 1.866600165472801  0.8641057031848803 -2.451300321475002 1.721670394835312  -0.3684976470014627 1.830061806164202 1.264802008922055  -0.2216389557874752 1.62789226709914 1.457011224525092  -0.5076997261282816 1.73835050707284 1.478753420384372  -0.4421775412867968 1.486762266811998 1.445687109574949  -0.8479693024619686 -0.9373609650520125 -2.265213399291919  -1.081679936077317 -0.9125939106853908 -2.305225996029823  -1.030790294498501 -0.696292512621344 -2.034414351673887  -0.9310957435825349 -0.538165402205836 -2.219051151758892  -0.7342924166010445 2.31054956167942 -0.6865150809760552  -0.4450007245236941 2.159322490764387 -0.6610041136234198  -0.5049710033891613 2.398943179451301 -0.6617497317931458  -0.651019528267003 2.108274976017262 -0.4299784915207371  -1.098656820393531 2.202707495699089 -1.147201750959736  -0.9538972008656038 2.476788253414311 -1.081314673176323  -0.972644194365864 2.247485499532092 -0.9483447881223772  -0.8725697777737327 2.269588762617275 -1.208747664797519  1.844298532589186 1.877390393741057 -2.280761553657566  1.648762939975426 1.853929773169231 -1.931482485004026  1.98842460152229 1.919813691997008 -2.094212186468512  1.661750776471728 2.189681128047451 -2.113949015151853  2.687330950431968 0.9631676093822946 -0.2033348273409852  2.702517509551514 0.8139236927876928 -0.4120551287569004  2.440362311137734 0.9068349179438537 -0.1597267831060707  2.5222864270368 1.019458492456118 -0.5341871632823196  -1.787385634661426 -2.127903314861446 -1.573611399639014  -2.063110389348146 -2.038668758655494 -1.90067133198417  -1.883541374563466 -1.846270808308971 -1.722208090591223  -1.881677705553281 -2.180854111043496 -1.939918663391032  2.393416045378935 -0.9666526218882407 -0.4383450965301864  2.359518538691301 -0.7471043395784558 -0.2462899651412065  2.112679146196272 -0.8153160378514103 -0.1955496285186788  2.432110733738321 -1.024440222183618 -0.18043404572126  -1.007477428218006 -1.116133760748819 2.562940303818726  -1.247029927888693 -1.136978256279816 2.721829512351859  -0.9968723849696941 -1.094640691147865 2.86248775923657  -1.15335868735498 -0.8477241421856886 2.792864831656169  -0.2219810838376769 1.502387455826458 2.259766334193182  -0.2161642398192693 1.236461895948552 2.595189930054203  -0.4667770861089775 1.392587961349075 2.581639342550822  -0.3191665088174854 1.228452956059117 2.318875111427693  -0.2899751714734335 2.010401553458318 -0.9040991308674808  0.007571854089657465 1.927977916040045 -0.8405095557731227  -0.1142141677993257 1.734163292645418 -0.7912733432972573  -0.1701613197210844 1.743792239723865 -1.066268915409736  -2.540678164195607 -1.099659442993846 0.6567243123415708  -2.635167275708326 -1.38380803803515 0.6514554412811308  -2.634570283849627 -1.185331286786274 0.4203333177129125  -2.370061810208016 -1.216010967376186 0.418092246649083  -1.957194768445997 -0.6641615287211575 -0.5519813507397937  -2.199674752572162 -0.7670454844834813 -0.7035132415883183  -2.185409756009154 -0.5323805519608105 -0.4581406491119563  -2.185811433029501 -0.4443443528284813 -0.7775168886111821  0.08762612697054525 -1.688645353421421 -0.7410796795487408  0.2369544984942975 -1.659362966842338 -0.3601813941910531  0.3624264810179911 -1.637903557463624 -0.6318677623593736  0.1558749892054923 -1.469839334393261 -0.6023477337917048  -0.4656955524358425 0.1747165973958378 0.0245922286177675  -0.7596134291978491 0.1344358094894254 0.1208472057157842  -0.4460363258307389 0.08613348873062499 0.2043321768591685  -0.3774977917605492 0.2970282696444821 0.1241403931998631  1.298274952234197 -2.248917476449875 -2.321243134971454  1.354452532676945 -1.995845176493185 -2.035791610651736  1.475563404025573 -2.021901691499299 -2.40659124545359  1.159675342732326 -2.124988243139869 -2.143401465109696  -1.019423760192183 0.7165905634195855 2.332593687500613  -0.8555877835741755 0.6436628879970001 2.5458143665084  -0.9193464179306179 0.9681416627439524 2.304182024626954  -1.051740872835047 0.8278610537052179 2.587721260114756  -1.21760571396086 -1.632101771452179 2.832654605916575  -1.043578496264302 -1.336595923283461 2.735001083966525  -1.207060314693012 -1.628102675745612 2.56327496459005  -1.261379420615095 -1.380866762777549 2.568930322891935  1.157542553190728 1.026246287176443 -2.453065441297101  1.200381251879509 0.9998173139435995 -2.106897423460285  1.112724138990386 1.177551205529987 -2.237521463700769  0.9724556729001255 0.9275141665719887 -2.151108350963991  -2.094868846554701 0.2996069637192206 -0.08704665631427075  -2.046781835427013 0.1806181422404627 0.1541791102672335  -1.903266828842023 0.1050572032696933 -0.0970280518276655  -1.860900328749389 0.4311189908029618 -0.03582273468341857  -1.04465728312001 2.24108126020904 0.4888087667774742  -1.046592014700197 2.520836049370916 0.1746354986518807  -1.238529005485543 2.273792331642008 0.2072455641757588  -1.180665620590882 2.501799429342059 0.5167334643008236  -1.010865488062554 -0.6562718940256249 1.652539536798364  -1.120262491532674 -0.8932695925768976 1.469421273139936  -1.312492433342144 -0.5750604581132805 1.586629963536089  -1.179886091101954 -0.5321207447960725 1.358985756170396  0.2929021296366928 -2.795974164986107 1.683690185881156  0.2036459529054197 -2.887757589547967 1.481712233584336  0.06809685894040776 -2.736926303677677 1.627459449934755  0.3792441406302505 -2.710661091716503 1.468751073547449  0.787761874658632 -1.292122723233057 0.410116088877048  0.8344671713599461 -1.527714997035974 0.3623264202684177  0.6406994633393138 -1.436444705233769 0.2264968608409959  0.969825189716073 -1.342440876012813 0.2542636283496731  -0.453894588248645 2.856954030093135 -0.5299503333472924  -0.3173422348791793 3.139541985222439 -0.4254793681129858  -0.4475517424387372 3.046138654968213 -0.1361042098661073  -0.2680162464822351 2.881980396270447 -0.2973621419629668  1.552559985815265 -1.002550047002451 -0.5624983539809522  1.690795583479958 -1.280096720612102 -0.6533915677758159  1.74728241686603 -0.9357414511056031 -0.7204465572466369  1.915453089151755 -1.127272811311826 -0.6208501150776483  -2.803565998093071 -1.970283021839438 -0.6092988464503077  -2.783285741531604 -2.051575334907041 -0.4399937638549221  -2.506655261814333 -1.963049625769572 -0.5839975206267551  -2.571875721005954 -1.749170838710151 -0.4431189056334857  -2.31066441358649 0.5315019157728564 0.986676715615319  -2.470497270344536 0.4474296829617594 1.359371788594657  -2.445216896457151 0.6881976652990532 1.099153517603007  -2.398123143182894 0.311806105540815 1.082721022798525  -1.932471914039298 -0.2141275820640826 -2.628299276137218  -1.872047975859218 -0.4599857040384727 -2.517763365409665  -1.676047940735881 -0.4551909265290207 -2.701244755699441  -1.639065282862901 -0.2382712367043393 -2.50713224398822  1.424302235276429 -1.271433282726544 0.8981082372610154  1.433126742029397 -1.366062964655345 1.15725701070876  1.689208731550411 -1.392232833744218 1.026065573733911  1.48263791743082 -1.082844020628344 1.185712481101909  2.616282589752096 0.8053142987653659 2.142571104463864  2.215771735950663 0.9809342372111847 2.064236374349805  2.597533151698909 1.06095952815939 2.046177602007202  2.406280278833216 0.9803483588994524 1.867431936377057  -2.896784601795029 1.338967659486605 0.2942004839475064  -2.709584718866008 1.593317155915092 0.2662780000755965  -2.716509545038116 1.325060929551808 0.033768853031725  -2.780223424166899 1.613459925622691 -0.00828556090440305  0.4032582962289974 0.3528328144309295 2.659497929069547  0.4638207980392748 0.1804660843302556 2.457350484545513  0.3026518250573184 0.1218030677225462 2.62546214385758  0.3470567489076016 0.3660780289008172 2.35940825550542  -0.6911770250111912 -0.2563083994853911 -0.374434006343731  -0.9071616038532597 -0.3881562856706378 -0.3611571005726389  -0.735136671335931 -0.3061303745274503 -0.6309571596810515  -0.81722069572064 -0.5379525240343987 -0.618810450809702  -0.3837842187838021 2.97162911668475 0.5278661607401057  -0.4809460490585606 2.794481025886588 0.6925116982898695  -0.6750254953353143 3.01602439330528 0.6806594087114574  -0.6372100334162849 2.781905045403108 0.4842968278354435  -1.966421061638624 1.788951818967843 -1.898538624867432  -1.635732369954838 1.952324174653143 -1.972776857640837  -1.723875268604468 1.743230894649686 -1.77824402435973  -1.617590959236706 1.699025851278466 -2.113537979677991  1.08219513825963 -2.408415510755558 -1.804499474003286  0.9557892178678701 -2.27656150657284 -2.102757153550393  0.7575891784250364 -2.400156008679605 -1.973883806729833  0.8467370898081263 -2.225357087267143 -1.83366585213343  -0.03278944790902211 -1.874978466304504 -0.8930527757008667  -0.266217424800427 -1.53681041853398 -0.937262313050596  -0.3651418052215142 -1.777381784535835 -0.9406337229325212  -0.1564860139846534 -1.621174337680272 -0.7245206290613636  -0.598667157452684 -0.6959609813140211 -1.888656060710566  -0.5528874715680161 -1.05187111336143 -1.741708299609928  -0.4497737106110338 -0.8270991174568256 -1.743653011960184  -0.7622208420224277 -0.7954149960923548 -1.734541023746506  -3.08523037570793 -0.5777809678875389 0.6291666538707501  -3.168081316928385 -0.29070378509284 0
[...]
<PointData  Scalars="u"> 
<DataArray  type="Float64"  Name="u"  format="ascii">2.5099523744036502e-03  3.2465096773716781e-03  4.7721232981083658e-03  3.6852073230924636e-03  3.6348472118841360e-02  4.1357287682263828e-02  3.1442790447867019e-02  2.7736694020943142e-02  1.5009018055159870e-03  2.2140667249971970e-03  3.0590212989171256e-08  2.6191360307850748e-03  1.4990735520134505e-02  1.6367472820552773e-02  1.2711231443184392e-02  1.8583534152523142e-02  8.1813072431161978e-03  6.6527014785479578e-03  1.1678342748957602e-02  1.0065415047582156e-02  9.3870830503749413e-03  1.3809072728556099e-02  9.0565547907332997e-03  1.5000114250065796e-02  6.5613367054355477e-03  4.9317125915182098e-03  7.7241148301462493e-03  6.5424111695928638e-03  3.0590212989171256e-08  2.3247705180171820e-03  3.0590212989171256e-08  3.0590212989171256e-08  4.9786500904748024e-03  5.0872491158963163e-03  8.1846673880115375e-03  5.9104631101252756e-03  1.9868693167302055e-03  3.0590212989171256e-08  2.3396565912168431e-03  3.0590212989171256e-08  7.8790884901111299e-03  1.0066665114668801e-02  1.4635227506735888e-02  7.5546364541096743e-03  3.8219695766820334e-03  1.8914619498627300e-03  1.7658797111686504e-03  2.4057254324867266e-03  6.3819410499203451e-03  4.6833342365345939e-03  3.8511208492069248e-03  7.4525200200807945e-03  1.5590475907867565e-02  1.9470366664120362e-02  2.6791253947758029e-02  2.1102892371623168e-02  5.1264112375723698e-03  3.2136101464928140e-03  4.4099604732295182e-03  6.8999937013852555e-03  1.8291292567826689e-02  1.1025328035085801e-02  1.4025683359775868e-02  1.2305297197888540e-02  2.9470330350700045e-02  3.5586931107229429e-02  3.1755313341955825e-02  4.0666613312587523e-02  9.9999937689222884e-02  8.3878644771370955e-02  9.9999937689222884e-02  9.9999937689222884e-02  3.0590212989171256e-08  2.2880134690419162e-03  3.0590212989171256e-08  1.6896869261385902e-03  7.4422256781263027e-03  5.9541454621283218e-03  7.0971957448149369e-03  4.3179364082043181e-03  3.0590212989171256e-08  1.7885379317683051e-03  1.4375209788911648e-03  2.0947903295215706e-03  4.4625318590250157e-03  7.7097400679670318e-03  6.0080503701489089e-03  9.0208435406878961e-03  1.8866831198721457e-02  2.0386743562540510e-02  2.7229795415323482e-02  2.6774683129473627e-02  9.4597285943701804e-03  6.3284118859673905e-03  8.2698848879392238e-03  5.4972244649334878e-03  2.0926170846336811e-02  2.0790427987269284e-02  1.7924529470861938e-02  2.7644798911479477e-02  1.3521253742066084e-03  1.5451749973665121e-03  2.0767402739025197e-03  2.7235560255508035e-03  4.1822726552145577e-02  3.2550970487241246e-02  4.1203434943280021e-02  3.7300116698665044e-02  4.1673331192418582e-03  2.1312082126022681e-03  2.9994696083922245e-03  4.5583899597642329e-03  2.5669819100930413e-02  1.5754924355725893e-02  1.9096119987150079e-02  1.3632321923279496e-02  3.0590212989171256e-08  3.0590212989171256e-08  1.7073422437984165e-03  2.4223190227872864e-03  8.7772603433938969e-03  5.0281243614840798e-03  6.1098823187019655e-03  7.4934169886202535e-03  1.4298789959562577e-03  2.1733905182243930e-03  1.8502146266092009e-03  3.5140266268410612e-03  1.9128016899686712e-02  1.3989268221052209e-02  1.1315126685096216e-02  1.6579756829998182e-02  3.0590212989171256e-08  2.0634652158941194e-03  3.0590212989171256e-08  1.9212184239935873e-03  1.9486247624861681e-03  2.3200975878833294e-03  3.4202834252267844e-03  1.9121103344948921e-03  6.6565185918671067e-03  9.4541894139445956e-03  7.4391498937913707e-03  1.1012005280518473e-02  7.4554022224799246e-02  6.0916820807078192e-02  6.0349058519077139e-02  5.5000517361853893e-02  3.3083486163781720e-03  4.4461889446208037e-03  2.2867232612565221e-03  4.7231583697636250e-03  1.4110855066893230e-03  1.7293892337682166e-03  3.3264783035286756e-03  2.2419460722834955e-03  1.9716166175073354e-03  1.5999382469167858e-03  1.9712316022897224e-03  3.5525600809625398e-03  2.0075038428216174e-02  3.0460286446089630e-02  2.1376159785233651e-02  3.2234981418820141e-02  1.8935163260354885e-02  1.8904194139613383e-02  2.2985616725082994e-02  2.0416682047252475e-02  2.0205892379043210e-03  1.6043009164148810e-03  3.0590212989171256e-08  2.0510152762318887e-03  2.2919884995376083e-03  1.7991765202456996e-03  3.0590212989171256e-08  1.4127470004390377e-03  1.9669773494161762e-02  1.9560932416242221e-02  1.5580861178003920e-02  2.8246252849454024e-02  5.0195896695246957e-03  6.3388010562165104e-03  9.1669166955451967e-03  9.4586683054451934e-03  7.0307615272645910e-02  5.7059569471905602e-02  6.3919370754920601e-02  7.0749483353416590e-02  5.9932436005593207e-03  8.1443751411969870e-03  5.0334721549212466e-03  5.1019243333102664e-03  4.7893760948808137e-02  3.5723412964735295e-02  4.4771161855689148e-02  4.4836153921508928e-02  1.5622577512722348e-03  3.0590212989171256e-08  3.0590212989171256e-08  2.1228285721144450e-03  3.0590212989171256e-08  3.0590212989171256e-08  3.0590212989171256e-08  1.8971429565592622e-03  3.0590212989171256e-08  2.4231584676012515e-03  1.8741858638798450e-03  2.8672962715683213e-03  1.7848125893617163e-03  2.2239548355202383e-03  2.3181739992346887e-03  3.5727134373615506e-03  3.0590212989171256e-08  3.0590212989171256e-08  3.0590212989171256e-08  1.5796895241154474e-03  1.4375886428642435e-03  1.6637502986346251e-03  2.4359765773623821e-03  4.0868706631051735e-03  3.5610805926803704e-03  2.0289108834350240e-03  1.9538780089662965e-03  3.0590212989171256e-08  3.0590212989171256e-08  3.0590212989171256e-08  5.3996100989560786e-03  4.3049188999801837e-03  7.7519558927003915e-03  4.3740421697115112e-03  5.3420710746628890e-03  4.6817408899342983e-03  4.4714921270737687e-03  9.2226451612364493e-03  4.3465669176222790e-03  4.6209593273404161e-03  7.3340194898311997e-03  6.8957673892338185e-03  2.0770951438249456e-03  1.3441756761785682e-03  1.3609066285853566e-03  3.0590212989171256e-08  3.0590212989171256e-08  3.0590212989171256e-08  1.7756708527266627e-03  3.0590212989171256e-08  3.0590212989171256e-08  3.0590212989171256e-08  3.0590212989171256e-08  1.6445578251366242e-03  3.7753386641437632e-02  4.7599670361921427e-02  3.0908257070212896e-02  3.6473489233790318e-02  2.7419842852600483e-02  2.1266457358279662e-02  2.4171518329735919e-02  3.3680469907888512e-02  8.3314090462594421e-03  7.7656159434776034e-03  5.0462772880213568e-03  7.6936234992278935e-03  1.7401400432307003e-03  3.0590212989171256e-08  2.2253644870078703e-03  1.5073405796760641e-03  3.2204420428023579e-02  3.8023232743116232e-02  2.9824740674571290e-02  4.1989841372756298e-02  4.0778739675452671e-03  3.0755607787789807e-03  2.3451474795476990e-03  4.8038055013052217e-03  3.5253880138386047e-02  3.2801577077300727e-02  3.2758918254062235e-02  4.3320086569067842e-02  9.4709204127035422e-03  8.9982157972791320e-03  1.7964258355454715e-02  2.5028832884282374e-02  1.4363483417073403e-02  1.8130483383095749e-02  1.0209915544741351e-02  1.3634303045469946e-02  1.5927326887030354e-02  1.7900533544830070e-02  1.6269545774940948e-02  1.1092131228937241e-02  1.5175436961434547e-02  1.2796306928395120e-02  3.0590212989171256e-08  1.7541126895074246e-03  3.0590212989171256e-08  1.3270403829705160e-03  1.7367857838970518e-02  1.7477664316441637e-02  1.0391111349639576e-02  1.2431003414022822e-02  1.7156575087766985e-03  4.3157154610482243e-03  4.6334676385600265e-03  3.7200590619328512e-03  2.6390581335271174e-03  1.6783618315569060e-03  5.4321202170990700e-02  4.6626889802545750e-02  4.3372695924727811e-02  4.4098224821643439e-02  5.3118268881623357e-03  4.6141038068799262e-03  4.2867256562876726e-03  7.6010188253871633e-03  3.0590212989171256e-08  1.6028574774652287e-03  3.0590212989171256e-08  3.0590212989171256e-08  1.6933243311779249e-03  2.2308880018115304e-03  4.7432626463092716e-03  2.0085478363598770e-03  1.4711280175898980e-03  3.4594107802725120e-03  1.7342318189655847e-03  4.6255544062698405e-02  4.4150540186389385e-02  5.0705307845782394e-02  4.1708245096913517e-02  5.1906338544353897e-03  2.6149060341791324e-03  4.6880156564220047e-03  4.8616162499512368e-03  1.6352488310220036e-03  3.2047607174619666e-03  3.8641904707190995e-03  2.8395677554200905e-03  2.3096479515810303e-03  3.0590212989171256e-08  1.3350217896869381e-03  3.0590212989171256e-08  5.0220679796456856e-02  4.8161466166827073e-02  4.1489691356381572e-02  4.5268787132280344e-02  3.7639166156054333e-03  2.7518622023681256e-03  5.9260447993731338e-03  3.6970837392463875e-03  6.2086232944501600e-02  5.4301552743442186e-02  5.5274657967861282e-02  7.1177927580095390e-02  2.1416287236680973e-03  1.8574142472573556e-03  3.0590212989171256e-08  2.3092490773602612e-03  3.0590212989171256e-08  1.9439132025267661e-02  2.7709695793907037e-02  1.7426523555815813e-02  2.5746092356707790e-02  4.6260013213936134e-03  7.6711929238989385e-03  6.7978174574419908e-03  5.4743303123750324e-03  2.4380119812668958e-03  1.5829842770494020e-03  3.0590212989171256e-08  1.7091072939291096e-03  3.0590212989171256e-08  3.0590212989171256e-08  1.7714194102334490e-03  1.9666595528348690e-03  3.0590212989171256e-08  3.0590212989171256e-08  1.9948102530554825e-03  1.9673328854856080e-03  2.7161625332529585e-03  4.1454955238203273e-03  4.5709891888666074e-03  5.3811810266446809e-03  7.1588037391999114e-03  5.8902394759507079e-03  9.4531531130344938e-03  2.6877694657920330e-02  1.6743879356634104e-02  2.5404360649687336e-02  2.1694462018513355e-02  1.4443645125944136e-03  3.0590212989171256e-08  3.0590212989171256e-08  1.4983590322665296e-03  2.1195162647505400e-02  1.3767416731711651e-02  1.3942816959321234e-02  1.7030894325789398e-03  1.5533226259664861e-03  3.0590212989171256e-08  2.1689584126169600e-03  1.4554230719714600e-02  1.2725469481013057e-02  1.8138584842268903e-02  1.4776384626681108e-02  1.1935536070731102e-02  9.6514351090434321e-03  1.4640848314942877e-02  5.1368318447070384e-03  6.2851066457161138e-03  8.4270068107462591e-03  8.0082824581709858e-03  1.4134815425105947e-03  3.0590212989171256e-08  3.0590212989171256e-08  1.4907783641919614e-03  8.6398766218897510e-03  7.3498058131412263e-03  9.7842284120150547e-03  1.1679709066966184e-02  4.4047177563541803e-02  3.4982840264291125e-02  4.3395422351946024e-02  3.8930278296006406e-02  1.6883375774648425e-03  3.0590212989171256e-08  2.3884742028047494e-03  2.0092831059483414e-03  6.1930775391521288e-02  6.2572276646297428e-02  5.5267340552956117e-02  5.2557752967776546e-02  3.0590212989171256e-08  3.0590212989171256e-08  3.0590212989171256e-08  2.0406806519106700e-03  7.6004651754756139e-03  6.7945127351746104e-03  5.2692373976679719e-03  8.6767840435200850e-03  4.4490070723562595e-03  2.6509687704938186e-03  2.9510311461598635e-03  5.2817479043031964e-03  4.3164907522112370e-02  3.7466650636083128e-02  4.5914687190668269e-02  3.5773117678378118e-02  4.5173333254731902e-03  7.1070607915834482e-03  5.5535201490509540e-03  8.7510222582816155e-03  1.1767426003641081e-02  2.0398087499652377e-02  1.7562984245032272e-02  1.5207110999207017e-02  1.8988934634895722e-02  1.7897426991758579e-02  1.7352007409281108e-02  2.3590436597598317e-02  1.9582634783017281e-02  1.1843575070463522e-02  1.3345583935473058e-02  1.3365481860362247e-02  1.1292579127548627e-02  1.3979277377795526e-02  1.6006215354953651e-02  1.2422045529619046e-03  1.4801536746946236e-03  2.1716602254342730e-03  2.8108022041292645e-03  2.1666792014017988e-03  2.8240134385611052e-03  1.4563946384878845e-03  4.0480601313196756e-03  1.2331914735284055e-02  1.3815627459164107e-02  1.7292498411688780e-02  1.0811798743748069e-02  1.8693007827792708e-03  3.0590212989171256e-08  1.3723404808922807e-03  3.0590212989171256e-08  5.4791337505979955e-02  4.9941611523824016e-02  4.7552031095754947e-02  5.0470113879178574e-02  1.6785944286867168e-03  3.0590212989171256e-08  3.0590212989171256e-08  1.5877239277649891e-03  4.1928633133746736e-02  5.1445982722882984e-02  5.5553186691545194e-02  4.3933228149595216e-02  4.6757832655753761e-03  9.3907526292610639e-03  6.6901251549072909e-03  5.1414670702786651e-03  6.3157856386130496e-03  5.4774143877224842e-03  4.0878197317745788e-03  6.8858719981160074e-03  1.4961119656304942e-03  3.0590212989171256e-08  1.6794790491059086e-03  3.0590212989171256e-08  3.3100709254202748e-02  4.1061775778871025e-02  3.7545090976495221e-02  6.5836226372623123e-03  9.9296444958650830e-03  6.9488557145516707e-03  8.2062792708537755e-03  3.0590212989171256e-08  3.0590212989171256e-08  3.0590212989171256e-08  1.5131416914179094e-03  1.8659873087948022e-03  3.0590212989171256e-08  1.4452927282905229e-03  2.4644154444074464e-03  2.6295898747908182e-03  1.7571887387488765e-03  1.9014737943769205e-03  3.3625098827469151e-03  1.7938706220436470e-02  1.9017536374305116e-02  2.0769198623297923e-02  2.9711928098695523e-02  5.8919863552661218e-02  5.0704251621904207e-02  5.0557225006107417e-02  5.4313773375858639e-02  2.4790480491463764e-03  3.0590212989171256e-08  1.5128908967539582e-03  1.6123556231193053e-03  2.1007322162116239e-02  2.9217688711087587e-02  1.5684418176739049e-02  2.3349806364915810e-02  3.0590212989171256e-08  3.0590212989171256e-08  1.4020725090070094e-03  2.1540428449677860e-03  3.8073910315671373e-02  4.5894631483590992e-02  3.5571051079873774e-02  9.7410408130967942e-03  7.6589890186068389e-03  1.2046664588996154e-02  8.9396361919790428e-03  3.0590212989171256e-08  3.0590212989171256e-08  3.0590212989171256e-08  1.7460082485044916e-03  3.0590212989171256e-08  1.4620676735170935e-03  2.2397558304962273e-03  1.5981596022415657e-03  3.4251657206933267e-02  3.2302218505933865e-02  2.4516675844870928e-02  3.0290280608602956e-02  2.3933936341775336e-03  3.0590212989171256e-08  1.6398505567194290e-03  1.4496907009332305e-03  9.3162570059690374e-03  1.3366590310503575e-02  1.3627971024747446e-02  1.0830143527348188e-02  4.7302963711810912e-03  4.5938547736707165e-03  7.5120134704238905e-03  5.0658274420039276e-03  2.4270304927465364e-03  1.3918496264721466e-03  2.9028100795240484e-03  2.0549807478630476e-03  3.0590212989171256e-08  3.0590212989171256e-08  1.9515523079015869e-03  2.1958968385412674e-03  3.5801520219282991e-03  2.6276437792424629e-03  2.0537621031871053e-03  3.9319207968419824e-03  2.0076544726525883e-03  3.8533425581395216e-03  2.3929844903175040e-03  5.2926390715665825e-03  5.6874140336071161e-02  5.8737406161683429e-02  6.5480209993605223e-02  5.4456333022310177e-02  3.0590212989171256e-08  1.3761454231570047e-03  1.6135169292867324e-03  2.2835138515606064e-03  4.7203403416222764e-03  8.7124261064020509e-03  5.7316169929130965e-03  5.1914821714878689e-03  6.9004759901862538e-03  8.1040293385277028e-03  8.7845964178469016e-03  1.1156924388108518e-02  9.5381729018983123e-03  1.4167289210276102e-02  1.0177697248550497e-02  1.8774520358778701e-03  3.0590212989171256e-08  1.3136665028333887e-03  3.0590212989171256e-08  6.4632933161930584e-02  6.1684952726844253e-02  6.2061918212043064e-02  7.1632373246580408e-02  3.8403833427349326e-03  1.7481013912379008e-03  3.5312723271287358e-03  5.4217154467187854e-02  6.6269272124791292e-02  6.8612224402042399e-02  1.5396268177161043e-03  2.6076450033423902e-03  3.0590212989171256e-08  1.6110074381726616e-03  3.0590212989171256e-08  1.4281711176001863e-03  1.9059756633348023e-03  5.4439942198613320e-03  7.6272136473166195e-03  3.7785728402591002e-03  5.7952295050714290e-03  4.8373628640141931e-03  4.8119032275767380e-03  3.7738532108941136e-03  4.1514231744418017e-03  8.4770619070761617e-03  6.4039026764488765e-03  6.2430488300207615e-03  7.0774273403775845e-03  4.1221655572920316e-03  5.9431732134759292e-03  2.9698649902753027e-03  3.9278913731804121e-03  5.6460349024881817e-03  2.6144969750887575e-02  3.5350617740085591e-02  3.7189293751852009e-02  3.5256122026440108e-02  3.0590212989171256e-08  3.0590212989171256e-08  3.0590212989171256e-08  1.3685607994832773e-03  1.8787314569188248e-03  2.3618130613414163e-03  1.3484308078562453e-03  2.9159664349080634e-03  2.5032456395593265e-02  1.8900090440962879e-02  2.8842485354130119e-02  3.0260852956892785e-02  4.8459059124800058e-02  4.4856186954187111e-02  3.6432432571110500e-02  4.6163075765062560e-02  5.4842212689635555e-03  6.1946762934237858e-03  7.3146506083508695e-03  8.6711195109144372e-03  5.5567830292678876e-03  4.8765505670670031e-03  6.5596350401756045e-03  8.7596781474794400e-03  8.3762675728309161e-03  5.4997908799157202e-03  5.9086422887260036e-03  4.3888914174957397e-02  2.6708006027429218e-02  3.0965481116132294e-02  3.5827685526280129e-02  3.0651648915710856e-03  4.4190177747847068e-03  1.9956588331002246e-03  1.1174640355474452e-02  1.5077880266920567e-02  1.4150418332726398e-02  3.7307152554887420e-03  2.8176433664968844e-03  4.2116317424950112e-03  6.6463039367507691e-03  4.1691815006546255e-03  3.1202278264746519e-03  3.9127182367552091e-03  6.3581942866846198e-03  6.2278333045430873e-03  5.5717816860029433e-03  3.9041753199290578e-03  7.0904159618920357e-03  3.6951480456924167e-02  4.0839408860159535e-02  2.7136129061524881e-02  3.1703199471191851e-02  3.0590212989171256e-08  1.2499406461070617e-03  1.9392427278487581e-03  2.8580874654589227e-03  3.0590212989171256e-08  1.6441952613149623e-03  2.6857633237787506e-03  1.7264161559163817e-03  1.0973136842776968e-02  1.2943350458572898e-02  1.5790894755607458e-02  1.0398622913566722e-02  6.3336407841970048e-03  3.0590212989171256e-08  3.0590212989171256e-08  1.8089766934140884e-03  1.5434911999141602e-03  4.5450575585910631e-03  5.3681986625698196e-03  1.9654872908150423e-02  2.1214235349671397e-02  1.5408163717049327e-02  2.8573152863889322e-02  1.2676111206264865e-02  1.2043397815439191e-02  1.4974213711046517e-02  9.6661795029129149e-03  4.8899565052334115e-03  4.2791704954780237e-03  6.8564534265451510e-03  5.7750550306625500e-03  3.0590212989171256e-08  3.0590212989171256e-08  2.2787894228900956e-03  1.4366331598568238e-03  1.6790168244846465e-03  3.0590212989171256e-08  3.0590212989171256e-08  1.4275317638816197e-03  8.3285506769324447e-03  1.1667529664550301e-02  1.1165872725880972e-02  2.3636367617161484e-02  3.1574600061503387e-02  2.8904884217678790e-02  2.9724688331420897e-02  4.3288270800781363e-03  2.8680020744814992e-03  4.2148855577785974e-03  6.1630194049528330e-03  2.5413673901088624e-03  1.4503348353809720e-03  3.0590212989171256e-08  2.7990702091887323e-02  2.1660707984878673e-02  3.0590212989171256e-08  3.0590212989171256e-08  3.0590212989171256e-08  1.7232418628303492e-03  6.7003602987362699e-03  1.0371262132312528e-02  7.4206482722192447e-03  1.0570095554314263e-02  9.1355238593241444e-03  1.6868316088388430e-02  2.1776179861933205e-02  1.1067545347552938e-02  1.7571159787135308e-02  1.9650678141636138e-02  3.0590212989171256e-08  3.0590212989171256e-08  1.7069700654264255e-03  1.4424857131190702e-03  3.4712034173209694e-03  3.8303866960094960e-03  2.3978508555149367e-03  4.7680832758577917e-03  4.7295709502433092e-03  8.6810452916033544e-03  7.5578442348968339e-03  6.8247775572510376e-03  2.9888674668765904e-02  3.5486505583541848e-02  2.5659579565254425e-02  4.1347496171130330e-02  5.2997203806684316e-03  3.0364107998369439e-03  6.6406185917360951e-03  3.0590212989171256e-08  1.8408791055775163e-03  3.0590212989171256e-08  2.3300323594896556e-03  3.0590212989171256e-08  3.0590212989171256e-08  8.5049665612747169e-03  6.5038477849413620e-03  6.3210795094868428e-03  5.8171944872489412e-03  1.3380892903193399e-02  8.6161122638949792e-03  9.0662911626549023e-03  1.3294049001346040e-02  3.0590212989171256e-08  1.6936119218461474e-03  3.0590212989171256e-08  1.5235500034252311e-03  1.5283497819095452e-03  1.5702987877764163e-03  1.7087189844318406e-03  3.5891669697564318e-03  1.6941456332003608e-03  9.2841664143903570e-03  7.1709372221079992e-03  5.4554758713858858e-03  8.2265743652981914e-03  7.4598868988325628e-03  8.6136596457576393e-03  5.0680180721543585e-03  6.3721572480357211e-03  3.0590212989171256e-08  3.0590212989171256e-08  3.0590212989171256e-08  1.3794709624606629e-03  2.0807133871088030e-03  1