<?xml version="1.0"?>
<VTKFile type="UnstructuredGrid"  version="0.1"  >
<UnstructuredGrid>
<Piece  NumberOfPoints="10984" NumberOfCells="62114">
<Points>
<DataArray  type="Float64"  NumberOfComponents="3"  format="ascii">0.400658023397264 2.820700869932021 -1.303184927397832  0.6808576204713309 2.597531199368547 -1.442758787973454  0.5976278522068063 2.529706889800945 -1.228986110686014  0.4269353864592832 2.605319576205623 -1.433949133013174  1.609427330261262 0.3367427988156942 0.4170358279486673  1.44693281398053 0.5628681124257806 0.3228786087221799  1.580048331914825 0.5397185306536847 0.684846451937468  1.706275180832744 0.7083092442527381 0.376382869319004  0.9853206107947066 -2.657876694636763 1.606769083234423  0.7446593666027364 -2.691149507706139 1.493102145126439  0.8819022788005507 -2.79981839065726 1.866600165472801  0.8641057031848803 -2.451300321475002 1.721670394835312  -0.3684976470014627 1.830061806164202 1.264802008922055  -0.2216389557874752 1.62789226709914 1.457011224525092  -0.5076997261282816 1.73835050707284 1.478753420384372  -0.4421775412867968 1.486762266811998 1.445687109574949  -0.8479693024619686 -0.9373609650520125 -2.265213399291919  -1.081679936077317 -0.9125939106853908 -2.305225996029823  -1.030790294498501 -0.696292512621344 -2.034414351673887  -0.9310957435825349 -0.538165402205836 -2.219051151758892  -0.7342924166010445 2.31054956167942 -0.6865150809760552  -0.4450007245236941 2.159322490764387 -0.6610041136234198  -0.5049710033891613 2.398943179451301 -0.6617497317931458  -0.651019528267003 2.108274976017262 -0.4299784915207371  -1.098656820393531 2.202707495699089 -1.147201750959736  -0.9538972008656038 2.476788253414311 -1.081314673176323  -0.972644194365864 2.247485499532092 -0.9483447881223772  -0.8725697777737327 2.269588762617275 -1.208747664797519  1.844298532589186 1.877390393741057 -2.280761553657566  1.648762939975426 1.853929773169231 -1.931482485004026  1.98842460152229 1.919813691997008 -2.094212186468512  1.661750776471728 2.189681128047451 -2.113949015151853  2.687330950431968 0.9631676093822946 -0.2033348273409852  2.702517509551514 0.8139236927876928 -0.4120551287569004  2.440362311137734 0.9068349179438537 -0.1597267831060707  2.5222864270368 1.019458492456118 -0.5341871632823196  -1.787385634661426 -2.127903314861446 -1.573611399639014  -2.063110389348146 -2.038668758655494 -1.90067133198417  -1.883541374563466 -1.846270808308971 -1.722208090591223  -1.881677705553281 -2.180854111043496 -1.939918663391032  2.393416045378935 -0.9666526218882407 -0.4383450965301864  2.359518538691301 -0.7471043395784558 -0.2462899651412065  2.112679146196272 -0.8153160378514103 -0.1955496285186788  2.432110733738321 -1.024440222183618 -0.18043404572126  -1.007477428218006 -1.116133760748819 2.562940303818726  -1.247029927888693 -1.136978256279816 2.721829512351859  -0.9968723849696941 -1.094640691147865 2.86248775923657  -1.15335868735498 -0.8477241421856886 2.792864831656169  -0.2219810838376769 1.502387455826458 2.259766334193182  -0.2161642398192693 1.236461895948552 2.595189930054203  -0.4667770861089775 1.392587961349075 2.581639342550822  -0.3191665088174854 1.228452956059117 2.318875111427693  -0.2899751714734335 2.010401553458318 -0.9040991308674808  0.007571854089657465 1.927977916040045 -0.8405095557731227  -0.1142141677993257 1.734163292645418 -0.7912733432972573  -0.1701613197210844 1.743792239723865 -1.066268915409736  -2.540678164195607 -1.099659442993846 0.6567243123415708  -2.635167275708326 -1.38380803803515 0.6514554412811308  -2.634570283849627 -1.185331286786274 0.4203333177129125  -2.370061810208016 -1.216010967376186 0.418092246649083  -1.957194768445997 -0.6641615287211575 -0.5519813507397937  -2.199674752572162 -0.7670454844834813 -0.7035132415883183  -2.185409756009154 -0.5323805519608105 -0.4581406491119563  -2.185811433029501 -0.4443443528284813 -0.7775168886111821  0.08762612697054525 -1.688645353421421 -0.7410796795487408  0.2369544984942975 -1.659362966842338 -0.3601813941910531  0.3624264810179911 -1.637903557463624 -0.6318677623593736  0.1558749892054923 -1.469839334393261 -0.6023477337917048  -0.4656955524358425 0.1747165973958378 0.0245922286177675  -0.7596134291978491 0.1344358094894254 0.1208472057157842  -0.4460363258307389 0.08613348873062499 0.2043321768591685  -0.3774977917605492 0.2970282696444821 0.1241403931998631  1.298274952234197 -2.248917476449875 -2.321243134971454  1.354452532676945 -1.995845176493185 -2.035791610651736  1.475563404025573 -2.021901691499299 -2.40659124545359  1.159675342732326 -2.124988243139869 -2.143401465109696  -1.019423760192183 0.7165905634195855 2.332593687500613  -0.8555877835741755 0.6436628879970001 2.5458143665084  -0.9193464179306179 0.9681416627439524 2.304182024626954  -1.051740872835047 0.8278610537052179 2.587721260114756  -1.21760571396086 -1.632101771452179 2.832654605916575  -1.043578496264302 -1.336595923283461 2.735001083966525  -1.207060314693012 -1.628102675745612 2.56327496459005  -1.261379420615095 -1.380866762777549 2.568930322891935  1.157542553190728 1.026246287176443 -2.453065441297101  1.200381251879509 0.9998173139435995 -2.106897423460285  1.112724138990386 1.177551205529987 -2.237521463700769  0.9724556729001255 0.9275141665719887 -2.151108350963991  -2.094868846554701 0.2996069637192206 -0.08704665631427075  -2.046781835427013 0.1806181422404627 0.1541791102672335  -1.903266828842023 0.1050572032696933 -0.0970280518276655  -1.860900328749389 0.4311189908029618 -0.03582273468341857  -1.04465728312001 2.24108126020904 0.4888087667774742  -1.046592014700197 2.520836049370916 0.1746354986518807  -1.238529005485543 2.273792331642008 0.2072455641757588  -1.180665620590882 2.501799429342059 0.5167334643008236  -1.010865488062554 -0.6562718940256249 1.652539536798364  -1.120262491532674 -0.8932695925768976 1.469421273139936  -1.312492433342144 -0.5750604581132805 1.586629963536089  -1.179886091101954 -0.5321207447960725 1.358985756170396  0.2929021296366928 -2.795974164986107 1.683690185881156  0.2036459529054197 -2.887757589547967 1.481712233584336  0.06809685894040776 -2.736926303677677 1.627459449934755  0.3792441406302505 -2.710661091716503 1.468751073547449  0.787761874658632 -1.292122723233057 0.410116088877048  0.8344671713599461 -1.527714997035974 0.3623264202684177  0.6406994633393138 -1.436444705233769 0.2264968608409959  0.969825189716073 -1.342440876012813 0.2542636283496731  -0.453894588248645 2.856954030093135 -0.5299503333472924  -0.3173422348791793 3.139541985222439 -0.4254793681129858  -0.4475517424387372 3.046138654968213 -0.1361042098661073  -0.2680162464822351 2.881980396270447 -0.2973621419629668  1.552559985815265 -1.002550047002451 -0.5624983539809522  1.690795583479958 -1.280096720612102 -0.6533915677758159  1.74728241686603 -0.9357414511056031 -0.7204465572466369  1.915453089151755 -1.127272811311826 -0.6208501150776483  -2.803565998093071 -1.970283021839438 -0.6092988464503077  -2.783285741531604 -2.051575334907041 -0.4399937638549221  -2.506655261814333 -1.963049625769572 -0.5839975206267551  -2.571875721005954 -1.749170838710151 -0.4431189056334857  -2.31066441358649 0.5315019157728564 0.986676715615319  -2.470497270344536 0.4474296829617594 1.359371788594657  -2.445216896457151 0.6881976652990532 1.099153517603007  -2.398123143182894 0.311806105540815 1.082721022798525  -1.932471914039298 -0.2141275820640826 -2.628299276137218  -1.872047975859218 -0.4599857040384727 -2.517763365409665  -1.676047940735881 -0.4551909265290207 -2.701244755699441  -1.639065282862901 -0.2382712367043393 -2.50713224398822  1.424302235276429 -1.271433282726544 0.8981082372610154  1.433126742029397 -1.366062964655345 1.15725701070876  1.689208731550411 -1.392232833744218 1.026065573733911  1.48263791743082 -1.082844020628344 1.185712481101909  2.616282589752096 0.8053142987653659 2.142571104463864  2.215771735950663 0.9809342372111847 2.064236374349805  2.597533151698909 1.06095952815939 2.046177602007202  2.406280278833216 0.9803483588994524 1.867431936377057  -2.896784601795029 1.338967659486605 0.2942004839475064  -2.709584718866008 1.593317155915092 0.2662780000755965  -2.716509545038116 1.325060929551808 0.033768853031725  -2.780223424166899 1.613459925622691 -0.00828556090440305  0.4032582962289974 0.3528328144309295 2.659497929069547  0.4638207980392748 0.1804660843302556 2.457350484545513  0.3026518250573184 0.1218030677225462 2.62546214385758  0.3470567489076016 0.3660780289008172 2.35940825550542  -0.6911770250111912 -0.2563083994853911 -0.374434006343731  -0.9071616038532597 -0.3881562856706378 -0.3611571005726389  -0.735136671335931 -0.3061303745274503 -0.6309571596810515  -0.81722069572064 -0.5379525240343987 -0.618810450809702  -0.3837842187838021 2.97162911668475 0.5278661607401057  -0.4809460490585606 2.794481025886588 0.6925116982898695  -0.6750254953353143 3.01602439330528 0.6806594087114574  -0.6372100334162849 2.781905045403108 0.4842968278354435  -1.966421061638624 1.788951818967843 -1.898538624867432  -1.635732369954838 1.952324174653143 -1.972776857640837  -1.723875268604468 1.743230894649686 -1.77824402435973  -1.617590959236706 1.699025851278466 -2.113537979677991  1.08219513825963 -2.408415510755558 -1.804499474003286  0.9557892178678701 -2.27656150657284 -2.102757153550393  0.7575891784250364 -2.400156008679605 -1.973883806729833  0.8467370898081263 -2.225357087267143 -1.83366585213343  -0.03278944790902211 -1.874978466304504 -0.8930527757008667  -0.266217424800427 -1.53681041853398 -0.937262313050596  -0.3651418052215142 -1.777381784535835 -0.9406337229325212  -0.1564860139846534 -1.621174337680272 -0.7245206290613636  -0.598667157452684 -0.6959609813140211 -1.888656060710566  -0.5528874715680161 -1.05187111336143 -1.741708299609928  -0.4497737106110338 -0.8270991174568256 -1.743653011960184  -0.7622208420224277 -0.7954149960923548 -1.734541023746506  -3.08523037570793 -0.5777809678875389 0.6291666538707501  -3.168081316928385 -0.29070378509284 0
[...]
<PointData  Vectors="u"> 
<DataArray  type="Float64"  Name="u"  NumberOfComponents="3" format="ascii">3.6619470144402384e+00 3.3302595502559875e+01 -1.5102701315665303e+01  7.0406264358780541e+00 2.2994012931865338e+01 -1.3911620327646785e+01  2.6313336308011053e+00 1.0888333848020048e+01 -5.9544536325001243e+00  2.9920463759828211e+00 2.0785900907250291e+01 -1.0314926536099728e+01  9.8483248911530430e-02 3.7081663531631927e-02 4.0384405505875208e-02  6.1328377288316409e-02 4.0786423298799834e-02 2.9775286306617976e-02  1.3044663185945646e-01 5.2572304188040951e-02 8.0171748775109672e-02  2.0261695971889493e-01 9.6440356025850202e-02 7.1075437411719247e-02  2.1422633793878205e+01 -5.4599621601533968e+01 3.2101018480677475e+01  9.4190160150864344e+00 -3.7051647657575039e+01 2.0654041609457394e+01  4.4113752603995316e+01 -1.4539069160166773e+02 9.8686410294661997e+01  9.7259459335408138e+00 -2.7573385769800144e+01 2.0745738204868303e+01  -1.9534079731970344e-01 8.1267384522324615e-01 6.5683619696059403e-01  -6.8750840501800567e-02 6.3356289173389557e-01 4.8719125509850425e-01  -4.7123555117773708e-01 1.1219601381489783e+00 9.6172095607997510e-01  -3.4400935555020336e-02 3.5321124103972196e-01 4.8074404776181079e-01  -1.4332113271406048e+00 -1.0725187032120609e+00 -3.6245555239153964e+00  -2.4679502420574271e+00 -2.1727339228742588e+00 -5.9148181852354060e+00  -8.7115036737577001e-01 -6.4436268374973149e-01 -1.5627818774225455e+00  -1.0278954137352472e+00 -4.5274974320486266e-01 -2.2655409540382982e+00  -8.9145611732424923e-01 2.8570012222717809e+00 -9.5287219446847571e-01  -2.6273582103876231e-01 1.2651767493770048e+00 -4.2575199728659802e-01  -8.1674525298174816e-01 3.0911098004287938e+00 -1.1859457431331506e+00  -3.6970340084731657e-01 9.8805575584294825e-01 -1.4015674634689398e-01  -2.7741210191663517e+00 5.6223202217298436e+00 -3.0851774562944954e+00  -4.3095573303805752e+00 1.0341892793866640e+01 -4.8387034833355074e+00  -1.8464693816624025e+00 4.3686277181450537e+00 -1.7287469110638907e+00  -2.8739710720190139e+00 5.7217096202269255e+00 -2.9999471128777224e+00  1.0124389085946619e+02 1.0666061101238880e+02 -1.1213432179430757e+02  1.9932552771949116e+01 2.2454773543965963e+01 -2.3467770618535727e+01  9.9762775988201270e+01 9.8766129381109820e+01 -1.0427703930144298e+02  8.9657752697859806e+01 1.1831194203550172e+02 -1.1166514981026667e+02  1.1614526760480338e+01 4.4436889542484099e+00 -1.1980766562718315e+00  1.1607496029404533e+01 2.9621100628598565e+00 -1.3101778014711933e+00  4.1000022028217966e+00 1.5279116237854926e+00 -2.6992592157242384e-01  7.5940630196285959e+00 3.6962543851287237e+00 -1.6441172316860451e+00  -2.7728697692819328e+01 -3.3248801177737434e+01 -2.3649833773840324e+01  -1.0878000885330552e+02 -1.1236700278888256e+02 -1.0834205446667252e+02  -2.3890699354842742e+01 -2.3437611550695152e+01 -2.2834244449261927e+01  -9.8003689658210490e+01 -1.0533429182041269e+02 -1.0331191863548422e+02  4.5576118588803700e+00 -1.7168372799802902e+00 -1.0936518839325939e+00  2.7101615841159004e+00 -5.5695409857714606e-01 -3.3202382300768013e-01  9.9972957653974093e-01 -3.4844348270503422e-01 -9.9699954884778702e-02  5.1841565677672481e+00 -2.2361513452835142e+00 -1.1972346514411530e-01  -6.6414814729930107e+00 -8.0959295393835760e+00 1.6934901088033776e+01  -1.9315409087028780e+01 -1.8170887001261040e+01 4.5552286128771527e+01  -1.6792942285517665e+01 -1.9161314286509555e+01 4.8699588931523792e+01  -1.3617758590630654e+01 -9.9457394586128185e+00 3.1812540611866339e+01  -3.0665763785670902e-01 3.7305361632604783e+00 5.9824272872980124e+00  -6.2754238172392940e-01 5.9046216547353820e+00 1.1897682028472662e+01  -3.3452402251628639e+00 9.6045086804312358e+00 1.6820230327006140e+01  -4.9640531169795110e-01 2.2806889243175035e+00 4.4618021791150078e+00  -9.6826229669347161e-02 8.0669179612432695e-01 -4.6038901878474092e-01  -2.0911455649649528e-02 5.3836829234083394e-01 -3.4752262165540831e-01  -2.4895787004194096e-02 2.2880586499417532e-01 -1.2674597481330968e-01  -7.6967657829306119e-02 4.2012080639651694e-01 -2.9853873515893281e-01  -1.0274383825769144e+01 -4.3617635750319002e+00 2.3198546830932574e+00  -2.4561095719566339e+01 -1.2846092025579303e+01 6.4561215215625660e+00  -1.4450749571738513e+01 -5.9220460270013353e+00 3.3881943823252545e+00  -5.8389392522557539e+00 -2.8685122082277434e+00 7.2223943894880160e-01  -5.7737509311386337e-01 -1.9920409026196118e-01 -1.4148971062351337e-01  -1.9268355819521530e+00 -6.9237044138079018e-01 -6.7716144565646552e-01  -1.1925662490020461e+00 -3.7104622051633607e-01 -2.7933906490611043e-01  -1.5451822621587725e+00 -2.6367696818248754e-01 -6.7003574811143163e-01  1.9630721378786419e-02 -1.9358911072109911e-01 -9.4356640965700317e-02  3.0340210286682493e-02 -1.1110156925652410e-01 -4.0881559519850612e-02  5.0338986570269161e-02 -1.3171653286655660e-01 -6.6747879439591026e-02  2.2276776317789678e-02 -5.5297210855087070e-02 -5.0086429470599957e-02  -1.7471672041912670e-01 -4.6569588034629494e-01 0.0000000000000000e+00  -3.1570040452329799e-02 -1.0492731014120460e-01 9.1100902939938340e-03  -8.6133549379843355e-02 -4.4603663989852993e-01 0.0000000000000000e+00  -2.9702847879115268e-01 -3.7749805756826638e-01 0.0000000000000000e+00  7.9688266060767290e+01 -1.2182358441523317e+02 -1.3133888136469071e+02  1.9204667687183417e+01 -2.5804684249026128e+01 -2.7369199132857855e+01  7.4469951766793500e+01 -1.0000237833280758e+02 -1.3091264255641701e+02  2.0235328707050716e+01 -3.8522310054770188e+01 -4.0055389966785199e+01  -2.0565629102271132e+00 1.4857776699470266e+00 4.6285938107488400e+00  -2.5748352811201616e+00 2.0537599202528938e+00 7.7526414200304208e+00  -1.4189075223328587e+00 1.7868164078674773e+00 4.8751367005228188e+00  -5.4856821965591873e+00 4.3685014479031867e+00 1.3535394215721665e+01  -6.8560911250714867e+01 -8.4294171358321435e+01 1.5677209294993307e+02  -1.7322592954701602e+01 -2.2507076666027576e+01 4.5538952330164257e+01  -2.6753206610161385e+01 -3.4350784643260923e+01 5.0701248679815329e+01  -1.9363565863004020e+01 -1.8060279148043460e+01 3.6932913853180253e+01  5.3101836653650798e+00 5.3071998412599406e+00 -1.2615216603428006e+01  2.5369246088342345e+00 1.6259036544621857e+00 -4.0545381605939514e+00  3.1119707262537584e+00 3.6390001648670478e+00 -6.8118128769621418e+00  8.5845011901188539e-01 1.0627764186282391e+00 -2.5225058096381434e+00  -6.0624940715492204e-01 8.6802607160192280e-02 8.8224638015905379e-03  -4.8525483960370625e-01 3.2569609404663094e-02 3.1073939911495131e-02  -3.0395032071788997e-01 -4.8926823057183644e-03 3.0033862234550021e-03  -2.8900482861454740e-01 3.9238346606920070e-02 -5.8671125953776255e-03  -1.1402546455722580e+00 2.7340158167261515e+00 3.8823832463952451e-01  -2.8975230070304954e+00 7.1546710009041190e+00 1.1906268045716946e+00  -2.0401786386512013e+00 3.7203514014946042e+00 6.6479661104003640e-01  -4.4347305516013353e+00 9.0465042540626737e+00 1.4028843868155954e+00  -1.5834637273994068e-01 -1.1220588464010592e-01 3.7307613723757571e-01  -2.5037776651049087e-01 -1.9411255457883506e-01 3.3811003906893261e-01  -3.8906369742908276e-01 -1.5789123948027892e-01 5.0903298272364217e-01  -1.0343861760120319e-01 -7.1011628460845827e-02 1.8636231315023688e-01  7.2342186847810463e+00 -6.0976295776695167e+01 3.6482493982682215e+01  3.4079993308359073e+00 -5.6786990352984510e+01 3.0747902378305483e+01  2.2813588572657304e+00 -4.0174518341074553e+01 2.3965468110530161e+01  4.8486328120732507e+00 -3.1680626201858175e+01 1.6959384930082983e+01  5.1026801479593258e-02 -4.3056954952030276e-02 3.6194938274721401e-02  8.7793829331908727e-02 -1.1922586935152973e-01 4.5008078391542958e-02  4.8728033997627887e-02 -5.6739898971780667e-02 2.2299548481656932e-02  7.2608937968834039e-02 -6.9329483211409332e-02 2.2668200298567056e-02  -3.0006377947816762e+00 1.6982631925630411e+01 -3.4045947279910331e+00  -5.3023324111428431e+00 4.5633402230983833e+01 -6.3582432457879001e+00  -4.6944891751549225e+00 3.2400494008325722e+01 -2.6269610000241728e+00  -1.5728576302263495e+00 1.4721463784058699e+01 -1.0214101801461866e+00  2.3402686780958645e-01 -1.1438729455472059e-01 -1.1419282494663688e-01  7.2425847220590345e-01 -5.1666475991244742e-01 -3.4858376268089408e-01  5.3060040368003014e-01 -2.5213818790232168e-01 -2.4563568448828443e-01  1.0566740916110022e+00 -7.2246306691781303e-01 -2.5363623470969404e-01  -1.5314335733592898e+02 -9.9353218952118354e+01 -4.2138846493970746e+01  -1.4774481511866759e+02 -1.1340074615831284e+02 -1.7987831853464751e+01  -4.4374691267688235e+01 -3.5367142858542479e+01 -1.0004721903045514e+01  -3.2779197085311708e+01 -2.3647432004848575e+01 -5.6404567315680394e+00  -3.0633479149529741e+00 1.0100759092903819e+00 1.2243433529349981e+00  -1.0781960633556954e+01 1.6349255507666596e+00 5.9579531671687489e+00  -7.3775030913179158e+00 2.4171215232988388e+00 3.7519671934847891e+00  -4.8179320739296250e+00 -4.2568077692075662e-03 3.0512132687531448e+00  -3.9447552950670563e+01 -3.7043485941042227e+00 -5.6464850998379156e+01  -2.7097018567245392e+01 -7.4819924913077216e+00 -3.6782179064554484e+01  -2.7523069377737098e+01 -6.5732619835377699e+00 -4.4513324036102532e+01  -1.2029089488613780e+01 -3.2837452204956894e+00 -1.8394342688878098e+01  4.3333720771104239e-01 -2.9533757051009890e-01 2.1212006088394583e-01  7.7105587698067635e-01 -7.6202228816482398e-01 6.3738245109171587e-01  1.2598429640622930e+00 -1.1637573492769087e+00 1.0301683464327365e+00  5.4729146787189309e-01 -3.6910943859740314e-01 4.6465696419765157e-01  1.4008702874619749e+02 4.8840043062296139e+01 1.0894861202014310e+02  3.2278464116719860e+01 1.3247884996744384e+01 2.9022365318966418e+01  1.4303589423393004e+02 5.7620201418845781e+01 1.0809133656378556e+02  4.1253251389542264e+01 1.5361343597715031e+01 3.1551261574652344e+01  -4.6317639317759827e+01 2.1267363100443589e+01 2.6766246745330737e+00  -3.4465146196499106e+01 2.0746917455397433e+01 1.6141953945740670e+00  -2.2497802018283572e+01 1.1401904888297585e+01 1.8209932847501107e+00  -4.6638570725830128e+01 2.7143883239735349e+01 4.3251815898030106e+00  7.1741622600597321e-01 6.1311710945949049e-01 6.9977841952517448e+00  2.9560067992635142e-01 6.4845196068928898e-02 2.6489487089806412e+00  3.6891142720441811e-01 4.0607398916052168e-01 5.1184741997085235e+00  1.5742714397097118e-01 4.0950957264879218e-01 1.8616731349656739e+00  2.5782652204825247e-02 -7.3843954950839771e-02 -2.0091472446169694e-02  4.3493917999703237e-03 -4.5222000838073928e-02 -2.8333442216242954e-02  2.6726756382655169e-02 -2.9705985957470264e-02 -3.0846469241639394e-02  1.6293686603810770e-02 -2.4548635345413256e-02 -3.5652174342658473e-02  -3.1990668555549622e+00 2.7584854488965870e+01 4.4183472610972521e+00  -2.6387140345997304e+00 1.4517428927357921e+01 4.2927822882541555e+00  -9.6847955490462070e+00 4.1732357724824695e+01 9.7064663609591033e+00  -2.9785318115527133e+00 1.3764451494903275e+01 3.0195992155527240e+00  -4.1211681481946322e+01 3.9174692011922161e+01 -4.1541105379268977e+01  -2.9059836665762976e+01 3.3470707796273558e+01 -3.5435099494681950e+01  -1.4439727130681518e+01 1.4735156609626181e+01 -1.5457804511936569e+01  -2.1343177727417444e+01 2.2813984771619069e+01 -2.7495632212100510e+01  1.6589173411734709e+01 -3.6590198915940348e+01 -2.8463529942953180e+01  1.7784065854442542e+01 -4.1919489519477381e+01 -4.0373387351966286e+01  1.1499593997664183e+01 -3.7854058148763038e+01 -3.0604914733900642e+01  7.0911526136127421e+00 -1.7833799308581082e+01 -1.4420561797638092e+01  2.2464215910036854e-02 -4.8784578303989073e-01 -2.3327382612576006e-01  -9.4607939592724517e-03 -1.1661621961943369e-01 -1.2160418948412495e-01  -8.2196185847898812e-02 -3.9795967521297620e-01 -2.4678064013751524e-01  8.4086233741549402e-03 -1.2013405434641738e-01 -8.4343006393195516e-02  -1.4649204289791193e-01 -1.9981641423129423e-01 -4.5024433123850438e-01  -1.5194749502970281e-01 -2.5967693562961974e-01 -4.7799710948441787e-01  -5.9624856140647796e-02 -1.2467259123395130e-01 -3.2386984658537654e-01  -1.4977778596092298e-01 -1.5390374435759277e-01 -4.3622305883606027e-01  -4.8151721057424851e+01 -7.8605331940510315e+00 1.1968826673483765e+01  -6.3885099107343116e+01 -6.6027792920471287e+00 1.3184339991230479e+01  -1.7932598349633659e+02 -3.6678971420752369e+01 5.1261762338681159e+01  -4.4494114608490186e+01 -7.1589370918944697e+00 1.5146095261521145e+01  8.1071729271886639e+00 1.5662792019920470e+01 -3.6190378713720087e+01  7.7645228281055081e+00 1.8392268432554861e+01 -4.9740401848172006e+01  4.4921793489877764e+01 6.6762583922378866e+01 -1.7278385612139169e+02  1.3797985469299375e+01 2.2502262840114657e+01 -6.3191141742647467e+01  -3.8410289685625411e-02 -4.6691417630078086e-02 -4.4333825304867192e-01  -4.4825565714304426e-02 -1.4385316608582291e-01 -5.1416568697469578e-01  1.4651447659160356e-02 -1.2719589625642358e-01 -7.8862349100757523e-01  5.5111831980837770e-03 -1.3295193755844299e-02 -1.5280889887179075e-01  1.2441103490962291e+00 -1.0979939353237665e+01 -5.1231814456226221e+00  1.2220546870444839e+00 -7.0314894498169309e+00 -3.0044431024844189e+00  2.0589137212029371e-01 -2.9993359207206844e+00 -1.4899860060175263e+00  5.4165937344343773e-01 -2.9655519069571143e+00 -9.5864595987824086e-01  3.3135490428293994e-02 -5.3207092543754879e-02 1.3609016466868469e-02  3.2240733841964186e-02 -1.9465227432224667e-02 1.3603099561047220e-02  4.0315323252102110e-02 -1.5785351008225784e-02 -1.4404194373999158e-03  1.2559907892154059e-02 -5.0947218123238505e-02 -6.0999495880609258e-03  -6.9972081095276728e+00 4.7714313342874411e-02 -4.3501381259133876e+00  -3.6974155389667853e+00 -9.9599057327816442e-03 -2.0842465816360232e+00  -1.0043887368701396e+01 -3.8056537370559962e-01 -4.8812735108213889e+00  -1.0002614733618724e+01 -2.2026500291370679e-02 -6.4031120853063994e+00  9.5202390384099243e-03 -1.4713620856710016e-02 -1.0353890424624467e-02  2.9272445474024639e-03 -6.9969015755011604e-03 -6.7421733490343153e-02  7.2345392364608586e-03 -1.6360338945335293e-03 -1.7214256808882267e-02  1.4168300216392206e-02 -1.2843226956580422e-02 -2.8066525823329899e-02  -1.4298025172661591e+01 5.9845745256855778e+01 -1.8678550501176751e+01  -3.2449454175227125e+01 1.8510834413735006e+02 -4.7850067121409410e+01  -4.2075342289706349e+01 1.7236436979987138e+02 -4.1070787257579859e+01  -1.1223633857488329e+01 4.1182074896540080e+01 -1.0035940949943509e+01  7.3427330941944973e+01 -1.6084797898259100e+02 7.8496897770860272e+01  7.6533629170199816e+01 -1.5892547787844390e+02 6.2345882508168430e+01  6.8965107071541397e+01 -1.5667519914463475e+02 7.0835045817812528e+01  2.3260305116897218e+01 -4.5413221400592647e+01 2.0385544479290033e+01  -1.2709406510957614e+02 1.0392136195368187e+02 -4.6114646033645592e+01  -3.1141521924055688e+01 2.0501828255108528e+01 -1.1087013513897501e+01  -3.9474539412735403e+01 3.1993690813021242e+01 -1.9394818729118963e+01  -2.3701545280199340e+01 1.8965117794850045e+01 -8.1254143532903189e+00  -7.6079484493888767e+00 -2.8217016274295304e+01 4.6278852956477472e+01  -4.8763006727715279e+00 -1.9765361180753512e+01 3.6432016083443507e+01  -4.4211715461002727e+00 -2.1137615786457392e+01 3.3404367544351508e+01  -4.5324206635104707e+00 -1.1392898828609439e+01 1.9112274274579377e+01  -2.0391724446134776e+02 -3.3569710232833472e+01 4.5298991623741557e+01  -1.8726726883003246e+02 -2.2490646553849544e+01 4.7694182063713015e+01  -1.5442616985212422e+02 -4.5597477331292993e+01 -1.0133539561255220e+02  -5.5344945018404644e+01 -1.5430246673957653e+01 -3.3159722358111850e+01  -5.1668791363042708e+01 -2.3691923690342282e+01 -3.9765416726419055e+01  -4.9716627483124249e+01 -1.7600566515652837e+01 -3.6536910813473625e+01  -2.8829613487220758e+01 -2.6757335118799574e+01 -1.9846118230204317e+00  -1.4439074781922837e+01 -1.2404439390418268e+01 -3.6597746759923055e-01  -1.6419723509237393e+01 -1.8579853744928077e+01 -3.3625129321032299e+00  -3.5463032013653979e+01 -3.1530431493243199e+01 -6.4659646604021921e+00  -5.1616309512724911e+01 -5.6086417474456057e-02 -6.9682310080879493e+00  -1.8808505760053853e+02 -1.8944618633071087e+01 -2.0900233056614177e+01  -1.9877338586419998e+02 1.1927348123164279e+00 -1.6580220495112982e+01  -1.9483517144924716e+02 -1.2012494458836557e+01 -3.1579663960911081e+01  9.0443857095797604e+00 3.8714192846536650e+00 -5.0439081588674757e+00  1.4997339166348281e+01 5.5345838212132801e+00 -5.9803752317957368e+00  3.4714269792784966e+00 1.2189009227475489e+00 -2.1898324674529821e+00  1.2397006432422678e+01 3.2899262255872341e+00 -7.5254875364762084e+00  -3.5388511805890337e+00 -1.0093773050026114e+01 9.8101064377317626e-01  -2.3839350949133973e+00 -1.3454680857826880e+01 2.7037766237727254e+00  -3.8203019516995962e+00 -1.5566254520340921e+01 1.5799612913970904e+00  -6.7276734118014458e-01 -2.9927952918389491e+00 1.7778901260564475e-01  2.7449149261701866e-01 -1.2421216959084703e+01 8.7068917771827987e+00  -8.5928408755901997e-01 -1.1347908196822676e+01 7.6128857756841786e+00  -4.1335339198089688e-01 -4.5170835255381059e+00 3.1219372339466838e+00  1.9223149132425477e-01 -5.4219737328633046e+00 3.3372099090113632e+00  1.1362296478387551e+01 -5.5566781775448710e+00 -4.2606588430941656e+01  1.8547496757623467e+01 -1.4129105557229831e+01 -6.7714174457312424e+01  1.4829891063208949e+01 -1.3828936689326621e+01 -6.8680857004952045e+01  3.6321438342868788e+01 -3.9114583619137605e+01 -1.8951574072682442e+02  -1.8233123082077739e+02 7.5283427554607343e+00 5.8102955841136293e+01  -1.7259818710258665e+02 -7.5585696135568003e+00 5.9848342727106719e+01  -5.1787530325324589e+01 -6.0453272425105842e-01 1.8333100790161399e+01  -1.8689782139421283e+02 -1.6692769550613352e+01 5.9858547475380476e+01  1.7514392419737109e+02 3.9302276898756240e+01 7.1377392369750481e+01  1.8370194232433880e+02 1.8046143219698084e+01 8.4774225471248542e+01  1.7661813938300455e+02 2.5259783568087787e+01 9.2484758056471620e+01  5.5598906958671890e+01 1.0460454743947897e+01 2.3801335254652262e+01  -3.1678217343825067e-02 -3.6941224554012152e-03 -8.0826291214198903e-02  -9.9801342997563446e-03 -1.8726854512679671e-02 -4.7505118669470964e-02  -1.1599030480008794e-01 2.8408185186647671e-03 -1.2338510179812394e-01  -5.6047825271064972e-02 -6.0025164660373696e-03 -7.4414847486337213e-02  1.6681146915891714e-02 -1.5907604865593034e-01 -1.9033472162183246e-01  6.8885768735506669e-02 -2.5044473699563286e-01 -3.5407860786995721e-01  2.3666777846983428e-02 -1.7901110418753932e-01 -2.4900198817193706e-01  2.8019747614822382e-02 -5.5189321756408012e-02 -9.6183756768663559e-02  -3.2128518578500045e+00 -2.3165559121424422e+00 -4.5918292970108038e-01  -3.7792195269229589e+00 -2.7060893393743348e+00 -4.8229695835870373e-01  -9.9857855694674225e+00 -7.6333270877576025e+00 -1.0082099511459470e+00  -4.1351168043851754e+00 -2.4716207068506821e+00 -1.2202950974055051e+00  4.4527749309589083e+01 2.8793275617535969e+01 -2.5149355711050593e+01  1.3114662077068388e+02 9.2886870200538823e+01 -7.5065455302781146e+01  3.1751049440875345e+01 2.4648173049608982e+01 -1.5663752945776007e+01  5.3058012673948518e+01 3.5623291866965907e+01 -2.1672927847497277e+01  6.1684081692332575e-02 1.4260767675198899e-01 1.0690397938177741e-02  4.5117981090875899e-02 8.2393758965451216e-02 -1.8411072594503183e-02  1.1565402904205904e-01 1.5434901074836693e-01 2.3911160910689041e-03  2.9334383926945456e-02 6.6556561851339263e-02 1.3332216155503829e-02  -9.6576414536927384e+00 -1.5739119653830278e+01 -4.7278933608699365e+00  -1.1702973526170933e+01 -2.5207194766271616e+01 -9.9899441893273568e+00  -2.0900770744100853e+01 -3.6180649133224918e+01 -1.1867103636996543e+01  -6.5095642497346686e+00 -1.0433444038219777e+01 -3.9179473250561467e+00  -2.7732918402913691e-02 -9.5085837787765998e-02 -4.9957190976749340e-02  -3.7040922120192221e-02 -1.1114229159356730e-01 -7.6164823781214960e-02  -5.3183448763756462e-02 -1.1350959626414295e-01 -6.3677666399790667e-02  -1.1340271434757849